<?xml version="1.0"?>
<VTKFile type="UnstructuredGrid"  version="0.1"  >
<UnstructuredGrid>
<Piece  NumberOfPoints="8270" NumberOfCells="16136">
<Points>
<DataArray  type="Float64"  NumberOfComponents="3"  format="ascii">-31.9960914221009 0.5001336906882571 0  -31.9960914221009 -0.5001336906882492 0  -31.96482852754277 -1.499912399038082 0  -31.90233328492555 -2.498225565782867 0  -31.80866675740083 -3.49409775430271 0  -31.68392046510883 -4.486555913020351 0  -31.52821629575549 -5.474630326155197 0  -31.34170638551782 -6.457355561217853 0  -31.12457297039402 -7.433771412319451 0  -30.87702820814335 -8.402923838374338 0  -30.5993139709901 -9.363865895279035 0  -30.2917016092939 -10.31565866115691 0  -29.95449168641733 -11.25737215376462 0  -29.58801368505016 -12.18808623916341 0  -29.1926256852767 -13.10689153076819 0  -28.76871401470126 -14.01289027789524 0  -28.31669287097334 -14.90519724294073 0  -27.83700391708129 -15.78294056633303 0  -27.33011584981027 -16.64526261841338 0  -26.79652394178563 -17.49132083741276 0  -26.23674955754959 -18.32028855270629 0  -25.65133964414391 -19.13135579254045 0  -25.04086619669622 -19.92373007544412 0  -24.40592569953223 -20.69663718455036 0  -23.74713854336004 -21.44932192407173 0  -23.06514841909576 -22.18104885719077 0  -22.36062168892293 -22.89110302464409 0  -21.63424673520015 -23.57879064329809 0  -20.88673328785311 -24.24343978403413 0  -20.11881173090832 -24.88440102828006 0  -19.33123238884596 -25.50104810254733 0  -18.52476479346916 -26.09277849035333 0  -17.70019693200637 -26.65901402093093 0  -16.85833447718084 -27.19920143415052 0  -16.00000000000001 -27.71281292110203 0  -15.1260321660341 -28.1993466398089 0  -14.23728491596854 -28.65832720557037 0  -13.33462663123158 -29.08930615545255 0  -12.41893928551199 -29.4918623864748 0  -11.49111758299599 -29.86560256706301 0  -10.55206808416533 -30.21016152136793 0  -9.602708320010926 -30.52520258607292 0  -8.643965895527101 -30.8104179393426 0  -7.676777583363121 -31.0655289015908 0  -6.702088408516637 -31.29028620777424 0  -5.720850724964153 -31.48447025094558 0  -4.734023285130568 -31.647891296828 0  -3.742570303106647 -31.78038966920173 0  -2.747460512530117 -31.88183590592122 0  -1.749666220050753 -31.95213088541065 0  -0.7501623553043349 -31.99120592351411 0  0.2500744816762843 -31.99902284060584 0  1.250066974682194 -31.97557399889498 0  2.248838046249382 -31.92088230988832 0  3.245411812345985 -31.83500121200383 0  4.238814535894 -31.71801461835677 0  5.228075578192953 -31.57003683476949 0  6.212228347316072 -31.39121244808494 0  7.19031124255269 -31.18171618489304 0  8.16136859397364 -30.94175274080802 0  9.124451596201826 -30.67155658046344 0  10.07861923547553 -30.37139170842032 0  11.02293920909863 -30.04155141121237 0  11.95648883637949 -29.6823579707801 0  12.8783559601681 -29.29416234957407 0  13.78763983811104 -28.87734384763484 0  14.68345202275315 -28.4323097319846 0  15.56491722962597 -27.95949483869286 0  16.43117419247493 -27.45936114800462 0  17.28137650478962 -26.93239733294653 0  18.1146934468145 -26.37911828185195 0  18.93031079723271 -25.80006459527135 0  19.72743162872932 -25.19580205775974 0  20.50527708665681 -24.56692108505718 0  21.26308715004228 -23.91403614720248 0  22.00012137419218 -23.23778516814399 0  22.71565961416969 -22.53882890243369 0  23.40900272843742 -21.817850289614 0  24.07947326197782 -21.075553786928 0  24.72641610822436 -20.31266468100488 0  25.34919914915614 -19.52992837919335 0  25.94721387293072 -18.72810968123563 0  26.51987596845189 -17.90799203199309 0  27.06662589629111 -17.07037675595425 0  27.586929435405 -16.21608227427283 0  28.08027820511459 -15.34594330510075 0  28.54619016183636 -14.4608100479979 0  28.9842100700797 -13.56154735321491 0  29.39390994725056 -12.64903387666128 0  29.77488948182677 -11.72416122138389 0  30.12677642449636 -10.78783306639523 0  30.44922695187665 -9.840964283702515 0  30.74192600245889 -8.884480044400021 0  31.00458758445004 -7.91931491469852 0  31.23695505521104 -6.946411942774859 0  31.43880137201843 -5.966721737333821 0  31.6099293139043 -4.981201538782964 0  31.75017167435793 -3.990814283927467 0  31.85939142470074 -2.996527665099212 0  31.93748184797491 -1.999313184639429 0  31.98436664321491 -1.000145205658388 0  32 0 0  31.98436664321491 1.000145205658377 0  31.93748184797491 1.999313184639445 0  31.85939142470074 2.996527665099225 0  31.75017167435793 3.990814283927449 0  31.6099293139043 4.981201538782943 0  31.43880137201844 5.966721737333797 0  31.23695505521105 6.946411942774834 0  31.00458758445004 7.919314914698519 0  30.74192600245889 8.884480044400018 0  30.44922695187665 9.84096428370251 0  30.12677642449636 10.78783306639522 0  29.77488948182677 11.72416122138388 0  29.39390994725055 12.64903387666129 0  28.9842100700797 13.56154735321492 0  28.54619016183637 14.46081004799788 0  28.0802782051146 15.34594330510073 0  27.58692943540501 16.21608227427281 0  27.06662589629112 17.07037675595425 0  26.5198759684519 17.90799203199308 0  25.94721387293072 18.72810968123562 0  25.34919914915614 19.52992837919335 0  24.72641610822437 20.31266468100487 0  24.07947326197781 21.07555378692801 0  23.40900272843741 21.81785028961401 0  22.71565961416971 22.53882890243367 0  22.00012137419219 23.23778516814397 0  21.2630871500423 23.91403614720247 0  20.50527708665684 24.56692108505716 0  19.72743162872932 25.19580205775974 0  18.93031079723272 25.80006459527135 0  18.1146934468145 26.37911828185195 0  17.28137650478962 26.93239733294653 0  16.43117419247494 27.45936114800462 0  15.56491722962596 27.95949483869287 0  14.68345202275314 28.43230973198461 0  13.78763983811105 28.87734384763483 0  12.87835596016812 29.29416234957406 0  11.95648883637952 29.68235797078009 0  11.02293920909866 30.04155141121236 0  10.07861923547553 30.37139170842032 0  9.124451596201833 30.67155658046343 0  8.161368593973648 30.94175274080802 0  7.190311242552698 31.18171618489303 0  6.212228347316088 31.39121244808493 0  5.228075578192967 31.57003683476949 0  4.238814535894022 31.71801461835677 0  3.245411812345972 31.83500121200383 0  2.248838046249376 31.92088230988832 0  1.250066974682223 31.97557399889498 0  0.250074481676285 31.99902284060584 0  -0.7501623553043342 31.99120592351411 0  -1.749666220050752 31.95213088541065 0  -2.747460512530109 31.88183590592122 0  -3.742570303106632 31.78038966920174 0  -4.73402328513056 31.647891296828 0  -5.720850724964138 31.48447025094558 0  -6.702088408516616 31.29028620777425 0  -7.676777583363127 31.0655289015908 0  -8.643965895527108 30.8104179393426 0  -9.602708320010898 30.52520258607293 0  -10.55206808416533 30.21016152136793 0  -11.49111758299598 29.86560256706301 0  -12.41893928551199 29.4918623864748 0  -13.33462663123157 29.08930615545255 0  -14.23728491596852 28.65832720557038 0  -15.12603216603409 28.19934663980891 0  -15.99999999999999 27.71281292110204 0  -16.85833447718082 27.19920143415053 0  -17.70019693200638 26.65901402093093 0  -18.52476479346917 26.09277849035333 0  -19.33123238884594 25.50104810254735 0  -20.11881173090831 24.88440102828007 0  -20.8867332878531 24.24343978403413 0  -21.63424673520014 23.5787906432981 0  -22.36062168892293 22.89110302464408 0  -23.06514841909575 22.18104885719079 0  -23.74713854336003 21.44932192407173 0  -24.40592569953222 20.69663718455036 0  -25.04086619669621 19.92373007544413 0  -25.65133964414391 19.13135579254044 0  -26.23674955754958 18.32028855270631 0  -26.79652394178561 17.49132083741278 0  -27.33011584981027 16.64526261841337 0  -27.83700391708129 15.78294056633304 0  -28.31669287097333 14.90519724294073 0  -28.76871401470127 14.01289027789524 0  -29.19262568527669 13.10689153076821 0  -29.58801368505015 12.18808623916343 0  -29.95449168641733 11.25737215376461 0  -30.29170160929389 10.31565866115692 0  -30.59931397099011 9.36386589527903 0  -30.87702820814335 8.40292383837436 0  -31.12457297039402 7.433771412319473 0  -31.34170638551783 6.457355561217847 0  -31.52821629575548 5.474630326155205 0  -31.68392046510883 4.486555913020345 0  -31.80866675740083 3.494097754302718 0  -31.90233328492555 2.498225565782889 0  -31.96482852754277 1.499912399038076 0  3.552713678800501e-15 -8.881784197001252e-16 0  -12.36471831863556 -10.15757301754637 0  -12.67614787806061 9.766157057897813 0  13.11997729293994 9.161263261075311 0  13.66672722077916 -8.323647985036477 0  1.186808663359431 -16.84602398586859 0  0.3995252150947868 17.03803628288848 0  -19.86450632061083 -0.6211594239445302 0  20.63328225740171 0.6451989047316048 0  -9.925638078159109 -0.5221282066761255 0  11.40965319969473 -18.41725685421729 0  -8.71476537102175 -19.835029636972 0  10.96914597310248 18.99911814105301 0  -9.549131059500302 19.53514183841131 0  11.73491468173432 0.3669486030056035 0  -21.49216057530014 8.462753681570673 0  -21.08805605335675 -9.866981713952951 0  -3.470509216091244 8.60508241055653 0  -3.214696734222911 -8.691294131185597 0  5.245241004846782 -9.390271640404155 0  21.64217898826539 9.107640897451036 0  22.16892890986204 -7.737675688895336 0  4.888735378207763 6.974057548501958 0  -17.48489108487031 16.29641127584132 0  -16.46322830653009 -17.23040556779267 0  -1.699503778449446 -24.12341795247239 0  4.634560476625627 23.67653831476104 0  18.3758133308315 -14.67582769829519 0  -3.157382424782594 24.00357278375443 0  18.1558664211684 16.04977371349113 0  5.900423811710096 -23.67188990548289 0  6.482243311467846 13.71810299292232 0  -25.50500071530638 2.398866921938069 0  -25.03344424201933 -4.64099650336844 0  -14.93713567732965 3.649887300261495 0  -5.490904974679934 14.63676960772802 0  -7.104450203884028 -13.7006455218268 0  -16.58470439735523 -5.759063999663483 0  25.79026515271757 3.65199334301796 0  25.734865499227 -2.752343191501153 0  5.838555679596098 1.107741423378535 0  8.943856590504009 -4.813476576416276 0  17.35712227113495 5.32714599291992 0  17.65604408398742 -4.232290782697291 0  1.32824777292074 11.50733758138708 0  -8.556377250123708
[...]
<PointData  Scalars="f_17"> 
<DataArray  type="Float64"  Name="f_17"  format="ascii">0.0000000000000000e+00  0.0000000000000000e+00  0.0000000000000000e+00  0.0000000000000000e+00  0.0000000000000000e+00  0.0000000000000000e+00  0.0000000000000000e+00  0.0000000000000000e+00  0.0000000000000000e+00  0.0000000000000000e+00  0.0000000000000000e+00  0.0000000000000000e+00  0.0000000000000000e+00  0.0000000000000000e+00  0.0000000000000000e+00  0.0000000000000000e+00  0.0000000000000000e+00  0.0000000000000000e+00  0.0000000000000000e+00  0.0000000000000000e+00  0.0000000000000000e+00  0.0000000000000000e+00  0.0000000000000000e+00  0.0000000000000000e+00  0.0000000000000000e+00  0.0000000000000000e+00  0.0000000000000000e+00  0.0000000000000000e+00  0.0000000000000000e+00  0.0000000000000000e+00  0.0000000000000000e+00  0.0000000000000000e+00  0.0000000000000000e+00  0.0000000000000000e+00  0.0000000000000000e+00  0.0000000000000000e+00  0.0000000000000000e+00  0.0000000000000000e+00  0.0000000000000000e+00  0.0000000000000000e+00  0.0000000000000000e+00  0.0000000000000000e+00  0.0000000000000000e+00  0.0000000000000000e+00  0.0000000000000000e+00  0.0000000000000000e+00  0.0000000000000000e+00  0.0000000000000000e+00  0.0000000000000000e+00  0.0000000000000000e+00  0.0000000000000000e+00  0.0000000000000000e+00  0.0000000000000000e+00  0.0000000000000000e+00  0.0000000000000000e+00  0.0000000000000000e+00  0.0000000000000000e+00  0.0000000000000000e+00  0.0000000000000000e+00  0.0000000000000000e+00  0.0000000000000000e+00  0.0000000000000000e+00  0.0000000000000000e+00  0.0000000000000000e+00  0.0000000000000000e+00  0.0000000000000000e+00  0.0000000000000000e+00  0.0000000000000000e+00  0.0000000000000000e+00  0.0000000000000000e+00  0.0000000000000000e+00  0.0000000000000000e+00  0.0000000000000000e+00  0.0000000000000000e+00  0.0000000000000000e+00  0.0000000000000000e+00  0.0000000000000000e+00  0.0000000000000000e+00  0.0000000000000000e+00  0.0000000000000000e+00  0.0000000000000000e+00  0.0000000000000000e+00  0.0000000000000000e+00  0.0000000000000000e+00  0.0000000000000000e+00  0.0000000000000000e+00  0.0000000000000000e+00  0.0000000000000000e+00  0.0000000000000000e+00  0.0000000000000000e+00  0.0000000000000000e+00  0.0000000000000000e+00  0.0000000000000000e+00  0.0000000000000000e+00  0.0000000000000000e+00  0.0000000000000000e+00  0.0000000000000000e+00  0.0000000000000000e+00  0.0000000000000000e+00  0.0000000000000000e+00  0.0000000000000000e+00  0.0000000000000000e+00  0.0000000000000000e+00  0.0000000000000000e+00  0.0000000000000000e+00  0.0000000000000000e+00  0.0000000000000000e+00  0.0000000000000000e+00  0.0000000000000000e+00  0.0000000000000000e+00  0.0000000000000000e+00  0.0000000000000000e+00  0.0000000000000000e+00  0.0000000000000000e+00  0.0000000000000000e+00  0.0000000000000000e+00  0.0000000000000000e+00  0.0000000000000000e+00  0.0000000000000000e+00  0.0000000000000000e+00  0.0000000000000000e+00  0.0000000000000000e+00  0.0000000000000000e+00  0.0000000000000000e+00  0.0000000000000000e+00  0.0000000000000000e+00  0.0000000000000000e+00  0.0000000000000000e+00  0.0000000000000000e+00  0.0000000000000000e+00  0.0000000000000000e+00  0.0000000000000000e+00  0.0000000000000000e+00  0.0000000000000000e+00  0.0000000000000000e+00  0.0000000000000000e+00  0.0000000000000000e+00  0.0000000000000000e+00  0.0000000000000000e+00  0.0000000000000000e+00  0.0000000000000000e+00  0.0000000000000000e+00  0.0000000000000000e+00  0.0000000000000000e+00  0.0000000000000000e+00  0.0000000000000000e+00  0.0000000000000000e+00  0.0000000000000000e+00  0.0000000000000000e+00  0.0000000000000000e+00  0.0000000000000000e+00  0.0000000000000000e+00  0.0000000000000000e+00  0.0000000000000000e+00  0.0000000000000000e+00  0.0000000000000000e+00  0.0000000000000000e+00  0.0000000000000000e+00  0.0000000000000000e+00  0.0000000000000000e+00  0.0000000000000000e+00  0.0000000000000000e+00  0.0000000000000000e+00  0.0000000000000000e+00  0.0000000000000000e+00  0.0000000000000000e+00  0.0000000000000000e+00  0.0000000000000000e+00  0.0000000000000000e+00  0.0000000000000000e+00  0.0000000000000000e+00  0.0000000000000000e+00  0.0000000000000000e+00  0.0000000000000000e+00  0.0000000000000000e+00  0.0000000000000000e+00  0.0000000000000000e+00  0.0000000000000000e+00  0.0000000000000000e+00  0.0000000000000000e+00  0.0000000000000000e+00  0.0000000000000000e+00  0.0000000000000000e+00  0.0000000000000000e+00  0.0000000000000000e+00  0.0000000000000000e+00  0.0000000000000000e+00  0.0000000000000000e+00  0.0000000000000000e+00  0.0000000000000000e+00  0.0000000000000000e+00  0.0000000000000000e+00  0.0000000000000000e+00  0.0000000000000000e+00  0.0000000000000000e+00  0.0000000000000000e+00  0.0000000000000000e+00  0.0000000000000000e+00  0.0000000000000000e+00  0.0000000000000000e+00  0.0000000000000000e+00  1.5357616531599037e+03  1.1517895209485521e+03  1.1518028943919696e+03  1.1517740317835794e+03  1.1517467198675570e+03  1.1080701675792284e+03  1.1001750888398972e+03  9.4339866939277908e+02  8.9663461252781929e+02  1.3877804569287362e+03  8.3177757959413555e+02  8.3180566727399639e+02  8.1393890518110118e+02  8.2671761627990611e+02  1.3292251061566812e+03  7.3560656271356936e+02  7.2284311541043564e+02  1.4066878519457625e+03  1.4070783072179911e+03  1.3622851087704589e+03  7.0883191197585393e+02  7.0885187134698367e+02  1.4271374288944087e+03  6.7891986624423180e+02  6.8403816823756245e+02  6.5869554789635038e+02  6.6275439238111585e+02  7.0630400077129013e+02  6.5664485351440339e+02  6.5506720457770029e+02  6.4314253463800378e+02  1.1905178390778353e+03  5.5149820352429788e+02  5.6353691284301101e+02  1.1812161431496977e+03  1.1692512262428475e+03  1.1786348443299769e+03  1.0735303974677365e+03  5.1811609506195373e+02  5.3099481672838783e+02  1.4828900223397072e+03  1.3811173982477078e+03  1.0415147884609519e+03  1.0414572601230784e+03  1.3346301591590620e+03  1.3830194371248863e+03  5.0466174561452539e+02  4.8978190894146837e+02  4.9935808543669498e+02  4.9599332921489111e+02  1.1416908873132058e+03  1.4891814069568991e+03  4.8470226375642653e+02  4.8081560128386161e+02  4.8280473391067443e+02  4.7582170533995617e+02  1.3767978643715619e+03  9.6845367252813128e+02  9.6472464718440062e+02  1.4954360882970559e+03  1.0506117988893525e+03  9.5572739019321989e+02  1.4949678455017063e+03  1.0435591015752843e+03  4.6524086966932640e+02  9.5814111807307938e+02  4.5996705526743330e+02  4.5513076247913153e+02  9.5870153671434821e+02  4.4776351178278560e+02  1.1932010839704324e+03  1.3738332851828131e+03  4.2198026545645769e+02  1.2775977925568184e+03  1.4972741904753832e+03  1.3262848373214038e+03  8.4573408326521906e+02  4.4277645472740198e+02  1.1985805921300107e+03  4.3426904879214146e+02  4.0065552889535383e+02  1.0151355783424498e+03  1.1421924883819927e+03  1.1961679230714590e+03  4.0859363313915344e+02  3.9792477654527880e+02  7.8668009814213872e+02  1.2509537844355764e+03  8.8510453839102809e+02  9.1773098670891807e+02  3.8760768604535832e+02  9.3161051415934662e+02  8.3605342015000122e+02  9.4387338825289044e+02  8.0024606982063472e+02  1.2990297082727077e+03  3.8382811464654873e+02  3.7634965161281934e+02  1.2730780822328079e+03  8.7148283656457488e+02  8.0031163972341915e+02  8.0787287561587834e+02  3.6522604221232365e+02  9.4751759380717397e+02  3.6513628723629523e+02  1.2410758890182276e+03  3.6653532304424937e+02  1.2910010702429902e+03  1.4842140418873616e+03  3.5533843963710456e+02  3.5590759397493918e+02  8.9923746126695073e+02  4.1577572338512374e+02  8.0549282769548199e+02  7.3964813505526809e+02  1.2795446394485275e+03  3.8338851730759620e+02  7.4778623547269251e+02  3.5903764176338200e+02  7.3803150555740967e+02  9.8327019062309660e+02  1.2997571942325278e+03  9.7014624879649421e+02  1.4811418472538085e+03  3.5335180946244117e+02  7.3049458373518621e+02  7.3859283714258936e+02  7.2708497220438653e+02  7.4625758188535781e+02  6.9149708558580778e+02  3.1985958979582944e+02  1.1327746076788003e+03  1.0228869501237314e+03  1.3279321338598968e+03  3.5318981089271796e+02  3.3330650584306289e+02  1.5170442922129450e+03  3.4291065859271424e+02  1.4468133592762451e+03  1.0541141314183253e+03  3.5028892569121194e+02  3.4691315871436990e+02  3.0878685482817707e+02  3.3390253491152163e+02  1.4241982072671317e+03  6.9453852600898676e+02  8.5792830514432899e+02  1.3311394821862077e+03  1.2625730568004988e+03  4.6523009967984495e+02  1.0766865694073845e+03  9.4145146507907862e+02  1.4289246287243600e+03  6.2406822383701501e+02  1.0890191906582827e+03  6.0674524714168319e+02  6.0842157528249993e+02  6.0783700166575227e+02  6.5749217149055119e+02  1.4167501286159029e+03  9.5509436153972331e+02  1.1289350700756827e+03  9.9838307286975089e+02  1.2974795345838108e+03  1.1329681020857565e+03  3.0949598489905134e+02  6.5786771370019801e+02  2.9292321483623283e+02  1.4474802463700014e+03  5.9267516477552317e+02  9.9642310596302150e+02  5.9393446244842914e+02  1.0207913078028569e+03  1.0163172127799428e+03  6.3300831102444420e+02  7.3413445073848413e+02  4.2412882321858626e+02  6.7671623513173176e+02  2.9473009766384928e+02  4.5202156391110452e+02  2.7598757911395762e+02  1.1648737936509715e+03  9.9693482413677179e+02  4.4778697891164393e+02  2.9723257256567609e+02  1.5212207593916089e+03  1.5219840206966564e+03  1.3843802860446176e+03  1.4293221982536554e+03  4.4136731377156275e+02  9.7387299396854178e+02  6.1861748191323420e+02  2.7862460013951357e+02  1.4085856903574756e+03  1.4514941934246581e+03  7.1336260379221983e+02  1.2787552449861505e+03  2.6653990406502533e+02  1.2799784861149953e+03  1.1090262654207756e+03  3.3824487717757239e+02  1.2631317290921947e+03  5.8455398750954055e+02  1.2874005518361485e+03  2.7261210815044973e+02  1.4035974027090426e+03  2.7741236683697980e+02  2.6665917055559191e+02  1.2755858288891261e+03  1.3815317506169158e+03  2.6064907806793838e+02  1.2742432777726553e+03  5.1788439327744106e+02  1.1271865153880001e+03  9.6517415519231952e+02  9.6443143446958368e+02  1.1342803338389294e+03  8.8530516764088713e+02  8.9468414114208258e+02  6.2025458320284338e+02  1.1743741380087818e+03  6.0065062333579067e+02  2.5620905891990299e+02  2.6673695403168313e+02  9.8280225232385794e+02  5.5836168503420095e+02  1.2312595418149801e+03  1.2577848031715539e+03  1.2371449546872225e+03  2.6979989078677096e+02  2.5849385167500822e+02  1.5213087517913746e+03  1.4782317590225825e+03  2.5254170287297006e+02  2.6245290293469810e+02  1.2955367713133146e+03  5.9090414048019682e+02  1.3713990148035796e+03  7.5109761051587191e+02  1.0467545545390258e+03  5.5963635664116828e+02  6.1560291821627732e+02  6.7958171197957904e+02  2.5586961621621924e+02  2.6363729350048879e+02  3.0118563244466606e+02  6.9218675762007558e+02  2.5550059813880068e+02  1.0879125002898090e+03  2.4746547589786383e+02  5.2702222947180144e+02  1.3867602848949350e+03  5.4881380821843209e+02  2.5325275721360063e+02  7.5313120433479764e+02  3.1327325378625653e+02  2.4616135564985552e+02  1.3453240559157589e+03  2.4219455073082474e+02  5.5450748453161225e+02  5.5649140442806720e+02  1.1095083627548538e+03  8.7689882832320700e+02  8.2598290413366794e+02  1.1057611681048636e+03  1.2338758377518802e+03  8.1295531941421552e+02  9.0422051394330879e+02  6.7629460635822659e+02  1.2423315295516329e+03  1.5223116907996693e+03  1.4549134488227585e+03  1.3034781397541710e+03  1.1544168688020129e+03  1.4329376002833415e+03  1.4426905484352424e+03  2.9236505174435433e+02  1.1725893158717984e+03  9.7703784981127990e+02  1.0849665418759221e+03  3.0436125714459945e+02  2.3628828194334190e+02  3.0160529175325331e+02  1.3505432495358098e+03  1.5179076861507328e+03  1.4837363086604710e+03  9.0086633391468774e+02  1.0807108890443401e+03  9.0335251518014513e+02  8.0351952948372650e+02  8.6803516625884356e+02  1.2249641641761320e+03  7.6726282781296959e+02  9.3213438441675476e+02  6.1384962162188219e+02  5.0428528505941841e+02  8.6110954117433153e+02  8.5826432435740367e+02  5.9113020026036622e+02  2.4801206985014514e+02  1.3331211687602629e+03  1.4528039686680670e+03  1.0669528588928665e+03  1.3155200522435325e+03  1.3905215319499189e+03  2.3310186116515064e+02  2.3673300679620749e+02  2.4537159151750524e+02  5.4530295888878868e+02  7.9056917346443879e+02  1.4658451196509659e+03  8.3480511413101021e+02  2.4145827553697225e+02  2.3065791128944284e+02  2.2994046643997316e+02  8.1647027974831951e+02  1.0224369569017776e+03  2.3309387068218692e+02  6.5523176271675857e+02  1.0752555144078890e+03  1.1256450238307921e+03  2.3503822831483913e+02  7.0695096993126720e+02  1.1296555227704266e+03  5.7495023552791508e+02  5.7780865783144316e+02  1.4927775739217454e+03  1.0363367558844616e+03  2.5560903341368717e+02  2.3006953791127393e+02  2.1342263050968558e+02  2.3257053970218502e+02  1.0094098783114489e+03  1.2031073711127904e+03  1.1988190705914353e+03  9.7973164680160562e+02  2.1334211614526976e+02  1.0902165954849286e+03  3.3954239999983093e+02  2.3678126811252864e+02  8.5389187189756626e+02  4.8757065601121820e+02  4.9331540384029603e+02  1.5279500834639418e+03  4.7925321336631566e+02  8.0433156861908776e+02  5.7874982349453467e+02  6.6386067808292876e+02  2.3130227654710629e+02  7.1058660897208358e+02  1.1660804102577508e+03  2.7332144765364120e+02  8.8637676761184480e+02  1.3782394011194669e+03  5.8593806036449519e+02  8.2026713228587937e+02  9.5098577561000980e+02  1.2741061157455995e+03  1.0879629416909011e+03  9.6541552122971939e+02  1.2456946242982740e+03  1.1457751015860295e+03  1.0310862116740780e+03  4.2886515727117120e+02  6.7308954397762500e+02  2.0244231140857318e+02  7.8360948056126404e+02  8.2685504552055409e+02  1.2055168762058854e+03  1.2105377568435108e+03  7.4540610109065824e+02  2.1314742593229491e+02  1.4577576268785092e+03  9.6242419766165062e+02  8.6157977344287531e+02  2.0872142840041650e+02  1.0432284122718208e+03  1.3202954582084681e+03  1.1564466334991596e+03  1.0384870774801054e+03  4.6392938824091107e+02  1.4364005329297506e+03  8.1520058822151179e+02  9.3300668749079966e+02  7.9386679808289807e+02  2.1219102452458873e+02  6.7429777647031779e+02  1.0808781857282681e+03  1.0604307445283464e+03  5.5352982732830787e+02  4.5121439982903723e+02  1.1799167241458620e+03  1.2319765259486016e+03  1.3613347000222032e+03  1.4938165800493473e+03  1.3189152319433699e+03  5.4740886355462146e+02  2.1159306124731839e+02  7.6924971641340233e+02  9.2219440882108324e+02  7.9743402831367916e+02  1.0640605199917350e+03  9.9576368715655178e+02  7.7736680468451425e+02  2.0641541674187025e+02  5.3903782208304233e+02  5.4323683834346355e+02  9.6336798520363141e+02  1.1794843946763988e+03  1.9499851531645052e+02  1.3366567349443076e+03  1.4894905689539034e+03  1.9246443306006125e+02  8.0259758445600028e+02  1.3546653237337980e+03  6.9858418830959556e+02  1.9028423174676880e+02  1.0614275773227234e+03  1.9013602064789518e+02  1.3478814317447577e+03  9.1342194056105211e+02  8.0818194543410777e+02  4.3445792375397821e+02  8.6021842060374183e+02  2.1779147589224974e+02  4.6031334582697139e+02  1.3039763134916016e+03  5.6291130531296358e+02  1.4472569364361591e+03  1.8592385082444079e+02  7.6030908379609912e+02  1.2125862172231355e+03  1.0458831847776880e+03  1.8721537916228493e+02  5.1729878391109787e+02  1.9476928972522037e+02  1.2227889008896641e+03  1.9839558328288751e+02  6.2361182016674911e+02  5.2256509190785232e+02  4.2848572307576694e+02  8.1973207475622200e+02  4.9713146333914193e+02  1.8615686489707437e+02  2.2839561142468605e+02  1.0756287975473242e+03  1.4361052912495145e+03  8.9768945664711521e+02  1.2367213330645263e+03  1.4891061804839378e+03  1.8385694947291768e+02  5.4188332829400758e+02  6.6443660504386173e+02  1.4517668711333929e+03  1.3405591914548359e+03  1.3367563438873105e+03  1.2243140669552195e+03  8.4391453773077160e+02  3.5994380010084978e+02  1.0623523353715025e+03  4.8892294205781002e+02  1.2385152466111861e+03  9.3424144559454999e+02  9.2617754544934212e+02  4.4617212329095889e+02  5.9724293009040321e+02  4.4566913622516245e+02  5.0294959907119227e+02  5.2382221482896659e+02  4.6362990200576957e+02  1.9542248642987761e+02  1.7973748531057396e+02  1.2153022729688814e+03  1.9019187057474613e+02  5.1158366023937657e+02  4.9898525771287854e+02  1.2799790700599092e+03  8.2537615469375919e+02  9.1130852934338589e+02  7.6699396635603171e+02  1.8792129630006855e+02  1.2253531481704215e+03  1.3402235502649262e+03  8.7927685306304670e+02  4.6928168102773805e+02  1.3446269924295327e+03  1.7850865793229548e+02  4.8022936241080635e+02  5.7136290459916643e+02  4.2058194196473602e+02  8.7007216990602535e+02  1.7730544934902716e+02  8.7811339211879181e+02  1.2131986802805259e+03  7.0392865195598984e+02  8.5468100161900691e+02  5.3848202363473774e+02  1.2690671742448189e+03  7.2680392107093223e+02  6.1236978134156277e+02  4.4370690424171198e+02  3.8675368343917194e+02  5.4218540459201699e+02  1.3120370507872435e+03  1.7407643423108760e+02  1.2621842137899407e+03  8.1155691206284064e+02  6.9273897636469269e+02  9.5522399347022440e+02  9.2087051433151441e+02  1.1829117167731188e+03  7.1868419771489039e+02  7.6138456169131575e+02  1.3829175953371273e+03  4.9082410198929500e+02  2.1739715901492664e+02  1.7923808402254133e+02  1.0040717927235236e+03  7.8689234075934314e+02  1.0703349090283061e+03  1.9335962383053345e+02  1.4251638737438932e+03  1.0084723500032370e+03  4.4161197893186795e+02  3.7330385531454954e+02  3.7520760835782573e+02  1.0584007735929279e+03  1.3569089647650621e+03  4.1028344650276745e+02  3.9086785236842098e+02  4.2647762716851395e+02  3.8474418813296609e+02  1.1064854259398887e+03  1.2472582599877460e+03  1.7497787380378375e+02  1.3257405005932999e+03  1.3813659088326663e+03  1.3554385463659567e+03  1.4978592315851226e+03  1.5006572480830032e+03  1.8456769451953187e+02  5.9631285107720566e+02  1.7944222192100611e+02  1.4272528607725349e+03  1.3319855157276497e+03  1.8233513371912619e+02  2.9304576531262296e+02  6.0881907721434686e+02  6.4565961934728284e+02  6.1507690406407801e+02  6.7425787264771100e+02  8.4819659623333587e+02  1.3328704873667571e+03  3.9974872319115138e+02  8.5913433794225000e+02  1.7264029934419219e+02  6.3803621871775317e+02  7.0977162666649019e+02  8.5870579166568200e+02  1.0556656680234653e+03  4.0375361645388313e+02  7.3263589012624846e+02  1.6265162882385553e+02  1.1607148261547766e+03  1.1306024380095021e+03  1.3783604058902456e+03  1.4071643224601160e+03  1.4635194848558278e+03  8.3335982763466507e+02  6.4335833582682710e+02  5.7350846444024535e+02  8.5000900807883431e+02  1.6156232929322459e+02  1.0952960474564959e+03  1.6268959495315855e+02  8.3128030993998959e+02  4.2395558218079913e+02  6.1686959911079441e+02  8.5362708320680986e+02  7.8431831625679740e+02  4.2479310605042792e+02  1.5309013221585546e+03  1.5126078613844184e+03  1.5110144723874937e+03  4.3358285344976474e+02  9.6209212025874149e+02  1.3371409847945870e+03  1.6341354316486292e+02  1.5993181156519344e+02  7.0184255929329845e+02  1.0501306378521315e+03  1.1636194779908221e+03  3.7137527525823100e+02  7.7766438829003187e+02  1.3014138371186764e+03  9.1196057409780883e+02  9.8468278586436509e+02  1.4225540879081659e+03  1.4246680135452068e+03  1.4737953322792371e+03  7.0046285096076974e+02  5.3225727191142721e+02  5.9406246290337151e+02  6.7481960904642870e+02  1.5597332643454985e+02  9.2376289054802180e+02  1.0316354038931895e+03  1.1126871905930714e+03  1.6763912071905065e+02  1.2619144364404183e+03  1.3852152163992737e+03  1.3017845917929744e+03  1.5309034928133035e+03  1.5309441488989598e+03  1.2053711587701835e+03  9.1002393209672698e+02  9.0629982854222658e+02  5.8381926837019239e+02  9.2440954529633348e+02  9.9508242284241305e+02  1.4565273303747788e+03  1.4512509149621353e+03  1.4078580272671397e+03  4.4050001982312074e+02  1.5883283084523453e+02  4.3799875722242837e+02  9.2791142405019423e+02  1.0135046401653922e+03  1.4623362114260246e